# Source: http://dept.ku.edu/~cfdku/hiocfd/data.tgz
# Spectral code - 512*512*512
# Time  -  Energy  -  Dissipation rate (-dE/dt) - Enstrophy
0.0 0.125 0.00046874284 0.375
0.01 0.124995312572 0.00046873893 0.374989843653
0.02 0.124990625221 0.000468736 0.374987498403
0.03 0.124985937852 0.000468742835 0.374992962973
0.04 0.124981250365 0.000468759425 0.375006236792
0.05 0.124976562663 0.000468785775 0.375027319999
0.06 0.124971874649 0.000468821895 0.37505621344
0.07 0.124967186225 0.000468867775 0.375092918664
0.08 0.124962497294 0.000468923425 0.375137437929
0.09 0.124957807757 0.00046898885 0.375189774192
0.1 0.124953117517 0.000469064045 0.375249931114
0.11 0.124948426476 0.00046914902 0.375317913056
0.12 0.124943734536 0.000469243785 0.375393725078
0.13 0.1249390416 0.000469348355001 0.375477372934
0.14 0.124934347569 0.000469462715 0.375568863077
0.15 0.124929652346 0.00046958689 0.375668202649
0.16 0.124924955831 0.00046972089 0.375775399485
0.17 0.124920257928 0.000469864715 0.37589046211
0.18 0.124915558537 0.000470018395 0.376013399733
0.19 0.12491085756 0.000470181925 0.376144222249
0.2 0.124906154899 0.000470355319999 0.376282940234
0.21 0.124901450454 0.000470538605001 0.376429564945
0.22 0.124896744126 0.00047073179 0.376584108314
0.23 0.124892035818 0.000470934885 0.376746582949
0.24 0.124887325429 0.00047114791 0.376917002129
0.25 0.12488261286 0.000471370885 0.377095379803
0.26 0.124877898011 0.00047160383 0.377281730583
0.27 0.124873180783 0.000471846755 0.377476069749
0.28 0.124868461076 0.000472099685 0.377678413236
0.29 0.124863738789 0.00047236265 0.377888777641
0.3 0.124859013823 0.000472635655 0.378107180212
0.31 0.124854286076 0.00047291873 0.378333638848
0.32 0.124849555448 0.0004732119 0.378568172099
0.33 0.124844821838 0.00047351519 0.378810799155
0.34 0.124840085145 0.00047382862 0.37906153985
0.35 0.124835345266 0.000474152215 0.379320414655
0.36 0.1248306021 0.00047448601 0.379587444677
0.37 0.124825855546 0.000474830025 0.37986265165
0.38 0.1248211055 0.000475184285 0.380146057941
0.39 0.12481635186 0.000475548825 0.380437686536
0.4 0.124811594523 0.000475923674999 0.380737561045
0.41 0.124806833387 0.00047630886 0.381045705692
0.42 0.124802068346 0.000476704415 0.381362145317
0.43 0.124797299298 0.000477110375 0.381686905367
0.44 0.124792526139 0.00047752676 0.382020011898
0.45 0.124787748763 0.000477953609999 0.382361491565
0.46 0.124782967066 0.00047839097 0.382711371624
0.47 0.124778180944 0.000478838865 0.383069679924
0.48 0.124773390289 0.000479297325 0.383436444908
0.49 0.124768594997 0.000479766395 0.383811695604
0.5 0.124763794961 0.00048024611 0.384195461625
0.51 0.124758990075 0.0004807365 0.384587773163
0.52 0.124754180231 0.00048123762 0.384988660988
0.53 0.124749365322 0.0004817495 0.38539815644
0.54 0.124744545241 0.00048227217 0.385816291432
0.55 0.124739719879 0.000482805685 0.386243098438
0.56 0.124734889127 0.000483350085 0.386678610497
0.57 0.124730052877 0.000483905405 0.387122861204
0.58 0.124725211019 0.000484471689999 0.387575884708
0.59 0.124720363444 0.000485048985 0.388037715711
0.6 0.12471551004 0.000485637335 0.38850838946
0.61 0.124710650697 0.000486236784999 0.388987941747
0.62 0.124705785304 0.00048684738 0.389476408901
0.63 0.124700913749 0.00048746916 0.389973827792
0.64 0.124696035921 0.000488102175 0.39048023582
0.65 0.124691151706 0.000488746475 0.390995670916
0.66 0.124686260991 0.00048940211 0.391520171535
0.67 0.124681363664 0.00049006913 0.392053776658
0.68 0.124676459609 0.00049074757 0.392596525783
0.69 0.124671548712 0.000491437495 0.393148458926
0.7 0.124666630859 0.000492138955 0.393709616615
0.71 0.124661705933 0.00049285199 0.394280039888
0.72 0.124656773819 0.00049357666 0.39485977029
0.73 0.1246518344 0.000494313015 0.39544884987
0.74 0.124646887559 0.000495061115 0.396047321177
0.75 0.124641933178 0.00049582101 0.396655227257
0.76 0.124636971139 0.00049659275 0.397272611652
0.77 0.124632001323 0.00049737639 0.397899518395
0.78 0.124627023611 0.000498171995 0.398535992009
0.79 0.124622037883 0.00049897961 0.399182077502
0.8 0.124617044019 0.000499799295 0.399837820367
0.81 0.124612041897 0.000500631115 0.400503266575
0.82 0.124607031396 0.00050147512 0.40117846258
0.83 0.124602012394 0.00050233137 0.401863455306
0.84 0.124596984769 0.000503199925 0.402558292156
0.85 0.124591948396 0.00050408085 0.403263021
0.86 0.124586903152 0.000504974195 0.403977690178
0.87 0.124581848912 0.000505880025 0.404702348496
0.88 0.124576785551 0.00050679841 0.405437045224
0.89 0.124571712944 0.0005077294 0.406181830093
0.9 0.124566630963 0.000508673065 0.406936753295
0.91 0.124561539482 0.000509629465 0.407701865478
0.92 0.124556438374 0.000510598665 0.408477217747
0.93 0.124551327509 0.000511580735 0.409262861661
0.94 0.124546206759 0.00051257573 0.410058849228
0.95 0.124541075995 0.00051358372 0.410865232909
0.96 0.124535935085 0.00051460477 0.411682065611
0.97 0.124530783899 0.00051563895 0.412509400688
0.98 0.124525622306 0.000516686325 0.413347291939
0.99 0.124520450173 0.000517746965 0.414195793605
1.0 0.124515267367 0.000518820935 0.415054960369
1.01 0.124510073754 0.0005199083 0.415924847353
1.02 0.124504869201 0.000521009145 0.416805510119
1.03 0.124499653571 0.000522123525 0.417697004664
1.04 0.12449442673 0.00052325151 0.418599387421
1.05 0.124489188541 0.00052439319 0.419512715258
1.06 0.124483938866 0.000525548615 0.420437045474
1.07 0.124478677569 0.000526717860001 0.421372435801
1.08 0.124473404509 0.00052790101 0.4223189444
1.09 0.124468119548 0.00052909813 0.423276629861
1.1 0.124462822546 0.00053030929 0.424245551202
1.11 0.124457513363 0.000531534575 0.425225767866
1.12 0.124452191855 0.000532774055 0.426217339724
1.13 0.124446857882 0.0005340278 0.427220327068
1.14 0.124441511299 0.00053529589 0.428234790616
1.15 0.124436151964 0.000536578405 0.429260791506
1.16 0.124430779731 0.00053787542 0.430298391296
1.17 0.124425394455 0.00053918701 0.431347651967
1.18 0.124419995991 0.00054051325 0.432408635915
1.19 0.12441458419 0.000541854225 0.433481405955
1.2 0.124409158906 0.000543210015001 0.43456602532
1.21 0.12440371999 0.00054458069 0.435662557656
1.22 0.124398267292 0.000545966339999 0.436771067025
1.23 0.124392800663 0.000547367045 0.437891617903
1.24 0.124387319951 0.000548782880001 0.439024275175
1.25 0.124381825006 0.00055021393 0.440169104142
1.26 0.124376315673 0.000551660279999 0.441326170511
1.27 0.1243707918 0.000553122005 0.4424955404
1.28 0.124365253233 0.00055459919 0.443677280334
1.29 0.124359699816 0.000556091925 0.444871457246
1.3 0.124354131394 0.000557600295 0.446078138474
1.31 0.12434854781 0.000559124375 0.44729739176
1.32 0.124342948907 0.000560664255 0.448529285249
1.33 0.124337334525 0.00056222002 0.449773887489
1.34 0.124331704506 0.00056379176 0.451031267428
1.35 0.12432605869 0.00056537956 0.452301494413
1.36 0.124320396915 0.000566983505 0.45358463819
1.37 0.12431471902 0.000568603685 0.4548807689
1.38 0.124309024841 0.00057024018 0.45618995708
1.39 0.124303314216 0.00057189309 0.457512273661
1.4 0.12429758698 0.000573562505 0.458847789966
1.41 0.124291842966 0.000575248505 0.460196577707
1.42 0.12428608201 0.000576951179999 0.461558708986
1.43 0.124280303943 0.00057867063 0.462934256293
1.44 0.124274508597 0.00058040694 0.4643232925
1.45 0.124268695804 0.000582160205 0.465725890867
1.46 0.124262865393 0.000583930515 0.467142125031
1.47 0.124257017194 0.000585717955 0.468572069012
1.48 0.124251151034 0.000587522635 0.470015797205
1.49 0.124245266741 0.000589344635 0.471473384384
1.5 0.124239364141 0.00059118405 0.472944905691
1.51 0.12423344306 0.00059304098 0.474430436644
1.52 0.124227503321 0.000594915515 0.475930053126
1.53 0.12422154475 0.000596807755 0.477443831389
1.54 0.124215567166 0.000598717795 0.478971848048
1.55 0.124209570394 0.000600645725 0.480514180077
1.56 0.124203554252 0.000602591645001 0.482070904812
1.57 0.124197518561 0.00060455566 0.483642099942
1.58 0.124191463139 0.000606537849999 0.485227843511
1.59 0.124185387804 0.00060853833 0.486828213912
1.6 0.124179292372 0.000610557195 0.488443289886
1.61 0.12417317666 0.000612594535 0.490073150517
1.62 0.124167040481 0.00061465046 0.491717875231
1.63 0.124160883651 0.00061672506 0.493377543791
1.64 0.12415470598 0.00061881844 0.495052236295
1.65 0.124148507282 0.000620930705 0.496742033171
1.66 0.124142287366 0.00062306195 0.498447015176
1.67 0.124136046043 0.000625212275 0.50016726339
1.68 0.124129783121 0.00062738179 0.501902859213
1.69 0.124123498407 0.000629570589999 0.503653884363
1.7 0.124117191709 0.000631778775 0.505420420869
1.71 0.124110862831 0.000634006455 0.50720255107
1.72 0.12410451158 0.00063625373 0.50900035761
1.73 0.124098137757 0.000638520705 0.510813923432
1.74 0.124091741166 0.000640807485 0.512643331778
1.75 0.124085321607 0.00064311417 0.514488666182
1.76 0.124078878882 0.000645440865 0.516350010465
1.77 0.12407241279 0.00064778768 0.518227448734
1.78 0.124065923129 0.00065015472 0.520121065373
1.79 0.124059409696 0.00065254209 0.522030945044
1.8 0.124052872287 0.00065494989 0.523957172677
1.81 0.124046310698 0.00065737823 0.525899833469
1.82 0.124039724722 0.000659827225 0.527859012879
1.83 0.124033114153 0.000662296975 0.529834796623
1.84 0.124026478783 0.000664787585 0.531827270668
1.85 0.124019818402 0.000667299165 0.533836521229
1.86 0.124013132799 0.000669831825 0.535862634763
1.87 0.124006421765 0.00067238567 0.537905697965
1.88 0.123999685086 0.000674960815 0.539965797765
1.89 0.123992922549 0.000677557365 0.542043021319
1.9 0.123986133939 0.000680175425 0.544137456009
1.91 0.12397931904 0.00068281511 0.546249189432
1.92 0.123972477637 0.000685476525 0.548378309403
1.93 0.12396560951 0.00068815979 0.550524903944
1.94 0.123958714441 0.000690865005 0.552689061284
1.95 0.12395179221 0.00069359228 0.55487086985
1.96 0.123944842595 0.00069634174 0.557070418265
1.97 0.123937865375 0.00069911348 0.559287795344
1.98 0.123930860326 0.000701907610001 0.561523090088
1.99 0.123923827223 0.000704724260001 0.563776391681
2.0 0.12391676584 0.00070756353 0.566047789484
2.01 0.123909675952 0.000710425525 0.568337373033
2.02 0.12390255733 0.000713310365 0.570645232034
2.03 0.123895409745 0.000716218165 0.572971456361
2.04 0.123888232967 0.000719149035 0.575316136048
2.05 0.123881026764 0.000722103085 0.577679361292
2.06 0.123873790905 0.000725080429999 0.580061222443
2.07 0.123866525155 0.00072808118 0.582461810008
2.08 0.123859229281 0.000731105455 0.584881214641
2.09 0.123851903046 0.000734153369999 0.587319527148
2.1 0.123844546214 0.00073722503 0.589776838479
2.11 0.123837158546 0.000740320545 0.592253239728
2.12 0.123829739803 0.00074344004 0.594748822135
2.13 0.123822289745 0.00074658363 0.59726367708
2.14 0.12381480813 0.000749751425001 0.599797896084
2.15 0.123807294716 0.00075294354 0.602351570811
2.16 0.12379974926 0.000756160085 0.604924793064
2.17 0.123792171515 0.000759401180001 0.60751765479
2.18 0.123784561236 0.00076266694 0.610130248079
2.19 0.123776918176 0.00076595748 0.612762665165
2.2 0.123769242086 0.000769272915 0.615414998431
2.21 0.123761532718 0.000772613365 0.618087340411
2.22 0.123753789819 0.00077597894 0.620779783791
2.23 0.123746013139 0.00077936975 0.623492421419
2.24 0.123738202424 0.00078278593 0.626225346303
2.25 0.12373035742 0.000786227585 0.628978651625
2.26 0.123722477872 0.00078969482 0.63175243074
2.27 0.123714563524 0.000793187774999 0.634546777189
2.28 0.123706614117 0.000796706555 0.637361784706
2.29 0.123698629393 0.000800251275 0.640197547227
2.3 0.123690609091 0.000803822065 0.643054158901
2.31 0.123682552951 0.00080741903 0.645931714103
2.32 0.123674460711 0.000811042285 0.648830307443
2.33 0.123666332106 0.000814691965 0.651750033786
2.34 0.123658166871 0.00081836818 0.65469098826
2.35 0.123649964742 0.000822071044999 0.657653266279
2.36 0.123641725451 0.00082580069 0.66063696356
2.37 0.123633448728 0.000829557225 0.663642176137
2.38 0.123625134306 0.00083334077 0.666669000389
2.39 0.123616781913 0.00083715146 0.669717533057
2.4 0.123608391277 0.000840989405 0.672787871273
2.41 0.123599962125 0.000844854725 0.675880112582
2.42 0.123591494182 0.00084874755 0.678994354971
2.43 0.123582987174 0.000852667995 0.682130696899
2.44 0.123574440822 0.000856616189999 0.685289237329
2.45 0.12356585485 0.00086059226 0.688470075758
2.46 0.123557228977 0.00086459633 0.691673312259
2.47 0.123548562923 0.00086862852 0.694899047512
2.48 0.123539856407 0.00087268896 0.698147382851
2.49 0.123531109144 0.000876777775 0.7014184203
2.5 0.123522320851 0.0008808951 0.704712262622
2.51 0.123513491242 0.000885041065 0.708029013366
2.52 0.12350462003 0.00088921579 0.711368776916
2.53 0.123495706926 0.00089341941 0.714731658547
2.54 0.123486751642 0.000897652065 0.718117764477
2.55 0.123477753885 0.000901913885 0.721527201929
2.56 0.123468713364 0.000906205005 0.724960079191
2.57 0.123459629785 0.000910525565 0.728416505682
2.58 0.123450502853 0.000914875695 0.731896592022
2.59 0.123441332271 0.00091925554 0.7354004501
2.6 0.123432117742 0.00092366524 0.738928193155
2.61 0.123422858966 0.000928104945 0.742479935851
2.62 0.123413555643 0.000932574795 0.746055794361
2.63 0.12340420747 0.00093707493 0.749655886453
2.64 0.123394814145 0.000941605515 0.753280331584
2.65 0.12338537536 0.00094616669 0.756929250992
2.66 0.123375890811 0.00095075861 0.760602767797
2.67 0.123366360188 0.000955381435 0.764301007105
2.68 0.123356783182 0.000960035325 0.768024096116
2.69 0.123347159481 0.00096472044 0.771772164236
2.7 0.123337488773 0.00096943694 0.775545343198
2.71 0.123327770743 0.000974185 0.779343767186
2.72 0.123318005073 0.000978964785 0.783167572957
2.73 0.123308191447 0.00098377647 0.787016899983
2.74 0.123298329544 0.00098862024 0.790891890585
2.75 0.123288419042 0.00099349627 0.794792690081
2.76 0.123278459618 0.00099840475 0.798719446937
2.77 0.123268450947 0.001003345865 0.802672312921
2.78 0.123258392701 0.00100831981 0.806651443271
2.79 0.123248284551 0.001013326785 0.810656996861
2.8 0.123238126165 0.001018366995 0.814689136381
2.81 0.123227917211 0.001023440645 0.818748028519
2.82 0.123217657352 0.00102854795 0.822833844149
2.83 0.123207346252 0.001033689135 0.826946758534
2.84 0.12319698357 0.00103886441 0.831086951526
2.85 0.123186568964 0.00104407402 0.835254607783
2.86 0.123176102089 0.0010493182 0.839449916987
2.87 0.1231655826 0.00105459719 0.843673074078
2.88 0.123155010146 0.00105991124 0.847924279483
2.89 0.123144384375 0.001065260605 0.852203739371
2.9 0.123133704933 0.00107064556 0.856511665905
2.91 0.123122971464 0.00107606637 0.860848277505
2.92 0.123112183606 0.00108152332 0.865213799122
2.93 0.123101340997 0.0010870167 0.869608462524
2.94 0.123090443272 0.001092546805 0.874032506589
2.95 0.123079490061 0.00109811395 0.878486177608
2.96 0.123068480993 0.001103718445 0.882969729599
2.97 0.123057415692 0.00110936062 0.887483424635
2.98 0.123046293781 0.00111504081 0.892027533179
2.99 0.123035114876 0.00112075937 0.896602334433
3.0 0.123023878593 0.001126516665 0.901208116699
3.01 0.123012584543 0.001132313055 0.905845177749
3.02 0.123001232332 0.00113814893 0.910513825213
3.03 0.122989821564 0.00114402469 0.915214376974
3.04 0.122978351838 0.00114994074 0.919947161581
3.05 0.122966822749 0.00115589751 0.924712518671
3.06 0.122955233888 0.001161895435 0.929510799412
3.07 0.122943584841 0.00116793497 0.934342366949
3.08 0.122931875189 0.00117401659 0.939207596876
3.09 0.122920104509 0.00118014078 0.944106877713
3.1 0.122908272373 0.00118630803 0.949040611407
3.11 0.122896378348 0.00119251887 0.95400921384
3.12 0.122884421996 0.001198773845 0.959013115358
3.13 0.122872402872 0.001205073495 0.964052761312
3.14 0.122860320526 0.00121141841 0.969128612621
3.15 0.122848174503 0.00121780918 0.97424114634
3.16 0.122835964342 0.001224246425 0.979390856257
3.17 0.122823689575 0.00123073078 0.984578253497
3.18 0.122811349727 0.00123726291 0.989803867146
3.19 0.122798944317 0.001243843505 0.995068244888
3.2 0.122786472857 0.00125047326 1.00037195366
3.21 0.122773934851 0.00125715292 1.00571558033
3.22 0.122761329798 0.00126388324 1.01109973238
3.23 0.122748657187 0.00127066501 1.01652503859
3.24 0.122735916498 0.00127749904 1.02199214977
3.25 0.122723107206 0.00128438617 1.02750173949
3.26 0.122710228775 0.001291327275 1.03305450482
3.27 0.12269728066 0.00129832326 1.03865116707
3.28 0.122684262309 0.001305375055 1.04429247257
3.29 0.122671173159 0.001312483625 1.04997919341
3.3 0.122658012637 0.001319649965 1.05571212828
3.31 0.12264478016 0.001326875105 1.06149210318
3.32 0.122631475135 0.00133416013 1.06731997227
3.33 0.122618096957 0.00134150613 1.07319661861
3.34 0.122604645012 0.001348914245 1.079122955
3.35 0.122591118672 0.00135638566 1.08509992471
3.36 0.122577517299 0.00136392159 1.09112850226
3.37 0.122563840241 0.001371523295 1.09720969425
3.38 0.122550086833 0.00137919208 1.10334453999
3.39 0.122536256399 0.001386929275 1.10953411233
3.4 0.122522348248 0.00139473627 1.11577951831
3.41 0.122508361674 0.001402614495 1.12208189983
3.42 0.122494295958 0.00141056541 1.12844243429
3.43 0.122480150365 0.00141859055 1.13486233519
3.44 0.122465924147 0.001426691465 1.14134285265
3.45 0.122451616536 0.001434869765 1.14788527393
3.46 0.122437226751 0.001443127115 1.1544909238
3.47 0.122422753994 0.00145146521 1.16116116494
3.48 0.122408197447 0.0014598858 1.1678973982
3.49 0.122393556278 0.001468390685 1.17470106274
3.5 0.122378829633 0.00147698172 1.18157363619
3.51 0.122364016643 0.00148566079 1.18851663458
3.52 0.122349116418 0.001494429845 1.1955316122
3.53 0.122334128046 0.001503290875 1.20262016139
3.54 0.1223190506 0.001512245905 1.20978391209
3.55 0.122303883128 0.001521297035 1.21702453137
3.56 0.122288624659 0.00153044639 1.22434372268
3.57 0.122273274201 0.001539696135 1.23174322508
3.58 0.122257830737 0.001549048495 1.23922481216
3.59 0.122242293231 0.001558505725 1.24679029092
3.6 0.122226660622 0.00156807013 1.25444150035
3.61 0.122210931828 0.00157774404 1.26218030996
3.62 0.122195105741 0.00158752982 1.27000861797
3.63 0.122179181232 0.00159742989 1.27792834944
3.64 0.122163157144 0.001607446685 1.28594145412
3.65 0.122147032298 0.001617582665 1.29404990415
3.66 0.12213080549 0.001627840315 1.30225569158
3.67 0.122114475492 0.001638222155 1.31056082564
3.68 0.122098041047 0.00164873071 1.31896732989
3.69 0.122081500877 0.00165936852 1.32747723916
3.7 0.122064853677 0.001670138145 1.33609259631
3.71 0.122048098115 0.001681042135 1.34481544885
3.72 0.122031232834 0.001692083055 1.35364784541
3.73 0.122014256454 0.001703263465 1.36259183198
3.74 0.121997167565 0.00171458591 1.37164944817
3.75 0.121979964735 0.001726052925 1.3808227232
3.76 0.121962646506 0.001737667025 1.39011367188
3.77 0.121945211395 0.00174943071 1.39952429041
3.78 0.121927657892 0.001761346445 1.40905655222
3.79 0.121909984466 0.001773416655 1.41871240361
3.8 0.121892189559 0.00178564374 1.42849375944
3.81 0.121874271591 0.00179803005 1.43840249871
3.82 0.121856228958 0.00181057788 1.44844046021
3.83 0.121838060034 0.001823289465 1.45860943807
3.84 0.121819763169 0.001836166985 1.46891117738
3.85 0.121801336694 0.00184921257 1.47934736981
3.86 0.121782778917 0.00186242825 1.48991964936
3.87 0.121764088129 0.00187581598 1.50062958801
3.88 0.121745262598 0.00188937766 1.51147869164
3.89 0.121726300576 0.00190311508 1.52246839589
3.9 0.121707200296 0.001917029925 1.53360006226
3.91 0.121687959977 0.001931123815 1.54487497425
3.92 0.12166857782 0.001945398255 1.55629433371
3.93 0.121649052012 0.00195985462 1.56785925735
3.94 0.121629380727 0.001974494205 1.57957077341
3.95 0.121609562128 0.00198931819 1.59142981853
3.96 0.121589594364 0.00200432762 1.60343723485
3.97 0.121569475576 0.00201952342 1.61559376732
3.98 0.121549203895 0.0020349064 1.62790006122
3.99 0.121528777447 0.00205047724 1.64035665991
4.0 0.121508194351 0.002066236485 1.65296400285
4.01 0.121487452718 0.00208218456 1.66572242375
4.02 0.121466550659 0.002098321745 1.67863214897
4.03 0.121445486283 0.00211464818 1.69169329611
4.04 0.121424257696 0.00213116388 1.70490587278
4.05 0.121402863005 0.002147868715 1.71826977536
4.06 0.121381300321 0.00216476241 1.73178478798
4.07 0.121359567757 0.00218184456 1.74545058147
4.08 0.12133766343 0.002199114605 1.75926671219
4.09 0.121315585465 0.00221657185 1.7732326209
4.1 0.121293331993 0.002234215455 1.78734763131
4.11 0.121270901156 0.00225204441 1.80161094849
4.12 0.121248291105 0.00227005758 1.81602165683
4.13 0.121225500004 0.002288253665 1.83057871768
4.14 0.121202526032 0.002306631205 1.8452809665
4.15 0.12117936738 0.00232518859 1.86012710937
4.16 0.12115602226 0.002343924025 1.87511571906
4.17 0.1211324889 0.00236283556 1.89024523036
4.18 0.121108765549 0.002381921055 1.90551393491
4.19 0.121084850479 0.002401178185 1.9209199754
4.2 0.121060741985 0.002420604445 1.93646133933
4.21 0.12103643839 0.0024401971 1.95213585247
4.22 0.121011938043 0.00245995322 1.96794117217
4.23 0.120987239325 0.002479869675 1.98387478082
4.24 0.120962340649 0.002499943075 1.99993397972
4.25 0.120937240464 0.002520169815 2.01611588381
4.26 0.120911937253 0.002540546055 2.03241741764
4.27 0.120886429543 0.0025610677 2.04883531303
4.28 0.120860715899 0.00258173044 2.06536610881
4.29 0.120834794934 0.0026025297 2.08200615324
4.3 0.120808665305 0.00262346068 2.09875160928
4.31 0.12078232572 0.00264451838 2.11559846312
4.32 0.120755774938 0.002665697575 2.13254253612
4.33 0.120729011769 0.002686992855 2.14957950007
4.34 0.12070203508 0.002708398645 2.16670489573
4.35 0.120674843796 0.00272990925 2.18391415426
4.36 0.120647436896 0.002751518855 2.2012026209
4.37 0.120619813419 0.002773221565 2.21856558034
4.38 0.120591972464 0.002795011455 2.23599828305
4.39 0.12056391319 0.00281688258 2.25349597152
4.4 0.120535634813 0.00283882902 2.27105390592
4.41 0.120507136609 0.00286084491 2.28866738806
4.42 0.120478417914 0.002882924455 2.30633178343
4.43 0.12044947812 0.002905061975 2.32404254048
4.44 0.120420316675 0.002927251905 2.34179520717
4.45 0.120390933082 0.00294948882 2.35958544433
4.46 0.120361326899 0.002971767465 2.3774090361
4.47 0.120331497733 0.00299408272 2.3952618976
4.48 0.120301445244 0.00301642965 2.41314008008
4.49 0.12027116914 0.003038803505 2.43103977385
4.5 0.120240669174 0.00306119969 2.44895730904
4.51 0.120209945146 0.00308361379 2.46688915461
4.52 0.120178996898 0.003106041565 2.48483191599
4.53 0.120147824315 0.003128478925 2.50278233131
4.54 0.12011642732 0.003150921965 2.52073726622
4.55 0.120084805875 0.003173366915 2.53869370735
4.56 0.120052959981 0.00319581014 2.55664875436
4.57 0.120020889673 0.00321824815 2.57459961068
4.58 0.119988595018 0.003240677555 2.59254357282
4.59 0.119956076121 0.003263095075 2.61047801809
4.6 0.119923333117 0.00328549752 2.6284003908
4.61 0.119890366171 0.00330788175 2.64630818693
4.62 0.119857175482 0.003330244675 2.66419893744
4.63 0.119823761278 0.003352583235 2.68207019039
4.64 0.119790123817 0.003374894345 2.69991949225
4.65 0.119756263391 0.003397174915 2.71774436869
4.66 0.119722180319 0.0034194218 2.73554230525
4.67 0.119687874955 0.003441631775 2.75331072844
4.68 0.119653347683 0.00346380153 2.77104698779
4.69 0.119618598924 0.003485927625 2.78874833942
4.7 0.119583629131 0.003508006495 2.80641193176
4.71 0.119548438794 0.003530034425 2.82403479399
4.72 0.119513028442 0.003552007545 2.84161382784
4.73 0.119477398643 0.00357392181 2.85914580305
4.74 0.119441550006 0.003595773025 2.8766273571
4.75 0.119405483183 0.00361755683 2.89405499922
4.76 0.11936919887 0.003639268705 2.91142511908
4.77 0.119332697809 0.00366090401 2.9287339999
4.78 0.119295980789 0.003682457995 2.94597783585
4.79 0.119259048649 0.00370392583 2.9631527534
4.8 0.119221902273 0.003725302615 2.98025483587
4.81 0.119184542597 0.00374658344 2.99728015079
4.82 0.119146970604 0.003767763415 3.01422477883
4.83 0.119109187328 0.003788837705 3.03108484369
4.84 0.11907119385 0.003809801555 3.04785654186
4.85 0.119032991297 0.003830650345 3.06453617131
4.86 0.118994580843 0.00385137962 3.08112015834
4.87 0.118955963705 0.003871985095 3.09760508174
4.88 0.118917141141 0.00389246272 3.11398769382
4.89 0.11887811445 0.003912808685 3.13026493767
4.9 0.118838884967 0.003933019415 3.14643396065
4.91 0.118799454062 0.003953091615 3.16249212385
4.92 0.118759823135 0.00397302226 3.17843700772
4.93 0.118719993617 0.003992808605 3.19426641399
4.94 0.118679966963 0.00401244818 3.20997836427
4.95 0.118639744653 0.004031938765 3.22557109561
4.96 0.118599328188 0.00405127843 3.24104305342
4.97 0.118558719085 0.00407046548 3.25639288224
4.98 0.118517918878 0.004089498435 3.27161941468
4.99 0.118476929116 0.004108376065 3.28672165898
5.0 0.118435751357 0.004127097335 3.30169878562
5.01 0.118394387169 0.00414566138 3.31655011318
5.02 0.118352838129 0.004164067515 3.331275094
5.03 0.118311105819 0.00418231521 3.34587329975
5.04 0.118269191825 0.004200404045 3.36034440732
5.05 0.118227097738 0.004218333735 3.37468818527
5.06 0.11818482515 0.00423610409 3.38890448104
5.07 0.118142375656 0.00425371499 3.40299320929
5.08 0.11809975085 0.00427116641 3.41695434143
5.09 0.118056952328 0.00428845837 3.43078789667
5.1 0.118013981683 0.004305590935 3.44449393459
5.11 0.117970840509 0.00432256423 3.45807254952
5.12 0.117927530398 0.00433937841 3.47152386678
5.13 0.117884052941 0.004356033665 3.48484804074
5.14 0.117840409725 0.004372530225 3.49804525488
5.15 0.117796602337 0.004388868365 3.51111572366
5.16 0.117752632358 0.004405048395 3.52405969632
5.17 0.117708501369 0.00442107067 3.53687746229
5.18 0.117664210944 0.00443693562 3.54956935823
5.19 0.117619762656 0.00445264374 3.56213577641
5.2 0.11757515807 0.0044681956 3.5745771743
5.21 0.117530398744 0.004483591865 3.58689408507
5.22 0.117485486232 0.00449883332 3.59908712877
5.23 0.117440422078 0.004513920865 3.61115702394
5.24 0.117395207815 0.00452885553 3.62310459932
5.25 0.117349844967 0.004543638515 3.63493080555
5.26 0.117304335045 0.00455827117 3.64663672632
5.27 0.117258679544 0.004572755035 3.65822358911
5.28 0.117212879944 0.004587091845 3.66969277493
5.29 0.117166937707 0.004601283515 3.6810458271
5.3 0.117120854274 0.004615332195 3.69228445886
5.31 0.117074631063 0.004629240255 3.70341055956
5.32 0.117028269469 0.00464301028 3.71442619945
5.33 0.116981770858 0.004656645075 3.72533363298
5.34 0.116935136567 0.004670147705 3.73613530045
5.35 0.116888367903 0.004683521455 3.74683382821
5.36 0.116841466138 0.004696769825 3.75743202715
5.37 0.116794432507 0.004709896565 3.76793288991
5.38 0.116747268207 0.004722905635 3.7783395865
5.39 0.116699974394 0.004735801205 3.78865545871
5.4 0.116652552183 0.00474858766 3.79888401337
5.41 0.116605002641 0.004761269585 3.80902891456
5.42 0.116557326791 0.004773851735 3.81909397502
5.43 0.116509525606 0.00478633905 3.82908314682
5.44 0.11646160001 0.00479873663 3.8390005116
5.45 0.116413550874 0.004811049725 3.84885027044
5.46 0.116365379015 0.004823283725 3.85863673363
5.47 0.116317085199 0.004835444135 3.86836431037
5.48 0.116268670133 0.004847536575 3.87803749867
5.49 0.116220134468 0.004859566765 3.88766087554
5.5 0.116171478798 0.00487154051 3.89723908751
5.51 0.116122703658 0.004883463695 3.90677684163
5.52 0.116073809524 0.004895342265 3.91627889702
5.53 0.116024796812 0.00490718222 3.925750057
5.54 0.115975665879 0.00491898962 3.93519516178
5.55 0.11592641702 0.004930770545 3.94461908179
5.56 0.115877050468 0.004942531105 3.95402671161
5.57 0.115827566398 0.004954277445 3.9634229645
5.58 0.115777964919 0.00496601573 3.97281276746
5.59 0.115728246083 0.004977752125 3.98220105689
5.6 0.115678409877 0.0049894928 3.99159277465
5.61 0.115628456227 0.00500124394 4.00099286474
5.62 0.115578384998 0.00501301173 4.01040627028
5.63 0.115528195992 0.005024802335 4.01983793097
5.64 0.115477888951 0.005036621925 4.02929278085
5.65 0.115427463554 0.00504847666 4.03877574649
5.66 0.115376919418 0.00506037268 4.04829174531
5.67 0.1153262561 0.005072316125 4.05784568426
5.68 0.115275473096 0.00508431311 4.06744245861
5.69 0.115224569838 0.00509636974 4.07708695083
5.7 0.115173545701 0.005108492105 4.08678402955
5.71 0.115122399996 0.00512068626 4.09653854839
5.72 0.115071131976 0.00513295826 4.10635534477
5.73 0.115019740831 0.00514531413 4.11623923832
5.74 0.114968225693 0.005157759865 4.12619502902
5.75 0.114916585634 0.00517030144 4.1362274949
5.76 0.114864819664 0.00518294479 4.14634138907
5.77 0.114812926738 0.00519569583 4.15654143616
5.78 0.114760905748 0.00520856042 4.16683232797
5.79 0.114708755529 0.005221544365 4.17721871821
5.8 0.11465647486 0.00523465344 4.18770521642
5.81 0.114604062461 0.005247893335 4.19829638089
5.82 0.114551516994 0.00526126967 4.20899671056
5.83 0.114498837067 0.005274787985 4.21981063614
5.84 0.114446021234 0.00528845372 4.23074251009
5.85 0.114393067993 0.005302272195 4.24179659597
5.86 0.11433997579 0.005316248615 4.25297705697
5.87 0.114286743021 0.005330388045 4.26428794384
5.88 0.114233368029 0.005344695385 4.27573318247
5.89 0.114179849113 0.00535917537 4.28731656115
5.9 0.114126184522 0.00537383254 4.29904171784
5.91 0.114072372462 0.005388671245 4.31091212763
5.92 0.114018411097 0.005403695595 4.32293109054
5.93 0.11396429855 0.00541890949 4.33510172005
5.94 0.113910032907 0.005434316575 4.34742693239
5.95 0.113855612219 0.00544992023 4.35990943701
5.96 0.113801034502 0.00546572357 4.37255172824
5.97 0.113746297747 0.00548172943 4.38535607845
5.98 0.113691399914 0.00549794038 4.39832453286
5.99 0.11363633894 0.00551435868 4.41145890606
6.0 0.11358111274 0.005530986305 4.42476078041
6.01 0.113525719214 0.00554782495 4.43823150636
6.02 0.113470156241 0.00556487601 4.45187220478
6.03 0.113414421693 0.00558214061 4.46568377123
6.04 0.113358513429 0.0055996196 4.47966688226
6.05 0.113302429301 0.00561731356 4.49382200362
6.06 0.113246167158 0.00563522282 4.50814940034
6.07 0.113189724845 0.00565334749 4.52264914853
6.08 0.113133100208 0.00567168744 4.53732114885
6.09 0.113076291096 0.005690242345 4.5521651415
6.1 0.113019295361 0.005709011715 4.56718072246
6.11 0.112962110862 0.005727994885 4.58236736101